# vtk DataFile Version 3.0
# comment: converted from file density_240000.dat
ASCII
DATASET STRUCTURED_POINTS
DIMENSIONS 24 24 24
ORIGIN 0.000000 0.000000 0.000000
SPACING 0.166667 0.166667 0.166667

POINT_DATA 13824
SCALARS scalars float
LOOKUP_TABLE default

 0.2363  0.0675  0.2363  0.1350  0.0000  0.0675  0.0675  0.2363 -0.2025 -0.0338 -0.0675  0.0338  0.2700  0.3038  0.1688  0.0338  0.1688  0.3375  0.1350  0.1688 -0.2363  0.4387 -0.1350 -0.0338 
 0.1013  0.2700 -0.0675 -0.2025 -0.3037 -0.5063 -0.0675  0.1012  0.0338  0.0675  0.1350  0.0000  0.1687  0.1013  0.2700  0.2025  0.2363 -0.1013  0.0000 -0.2025  0.1350  0.0000  0.2362  0.2700 
-0.0675 -0.8438 -0.5400 -0.7762 -0.9113 -0.6075 -1.0125 -0.3713 -0.3712  0.1350 -0.4387 -0.1350 -0.4725 -0.0675  0.0675 -0.4388 -0.5063 -0.7425 -0.6075 -0.4387 -0.5400 -0.2700 -0.2363 -0.3037 
-0.5400 -1.0125 -0.9450 -1.1813 -1.1138 -0.7762 -0.8438 -0.8775 -0.6750 -0.9113 -1.1138 -0.8775 -1.1138 -0.7087 -1.1138 -0.9788 -0.9450 -0.8100 -1.2150 -1.1812 -0.9450 -0.9450 -1.2150 -0.9788 
-0.7425 -1.0125 -0.8775 -1.1475 -1.4175 -1.2488 -1.0800 -1.1138 -1.4175 -1.2488 -1.1475 -1.0125 -1.3163 -1.0462 -0.9788 -1.2825 -1.0125 -0.6750 -1.1475 -0.7425 -1.4850 -1.5188 -0.8100 -0.7087 
-1.1138 -1.1475 -1.2488 -1.2488 -1.4512 -1.5188 -1.2150 -1.1812 -1.0125 -1.0462 -1.3838 -1.3838 -1.2488 -1.1475 -1.1812 -0.9788 -1.2488 -1.1812 -1.2825 -1.0125 -1.5525 -1.0125 -1.0800 -0.6750 
-1.4850 -1.1812 -1.1475 -1.2150 -0.9113 -1.1812 -1.0462 -1.0800 -1.0800 -0.9450 -1.5188 -1.1138 -1.4512 -0.9113 -1.2825 -0.8100 -1.3500 -1.3162 -1.2488 -0.8775 -1.0800 -1.2150 -1.0463 -0.5400 
-1.2825 -1.3162 -1.1475 -1.3838 -1.0125 -0.9450 -0.9787 -0.9788 -0.9113 -1.2150 -1.2825 -1.3162 -1.4512 -1.2488 -1.0800 -1.1813 -1.1475 -1.0463 -1.2825 -1.1812 -1.0462 -1.0462 -1.1138 -1.2825 
-1.1475 -1.2150 -0.7762 -0.9112 -1.2150 -0.9450 -0.7087 -1.0462 -1.0463 -1.2150 -1.1812 -1.1475 -1.3163 -0.8775 -0.5737 -0.6075 -1.0125 -0.9787 -1.3163 -1.2488 -0.9450 -1.0125 -1.1813 -0.8100 
-0.6750 -0.5400 -0.6075 -0.6412 -0.9450 -0.1688 -0.9112 -0.4725 -0.4387 -0.6750 -0.9788 -0.6750 -0.8438 -0.1350 -0.4725 -0.7087 -0.7763 -0.8438 -0.9112 -0.3712 -0.6075 -0.5062 -0.1688 -0.5063 
 0.1350 -0.0675  0.0000 -0.0338  0.0000 -0.1688  0.0000 -0.2025 -0.3037 -0.4388 -0.7087 -0.1012 -0.0675  0.1350  0.4387 -0.2700 -0.2362 -0.2363 -0.3713  0.0000  0.0675  0.0337  0.1350 -0.0338 
 0.4725  0.1012  0.3038 -0.0675  0.0675  0.2025  0.2025 -0.0338  0.0338  0.0000  0.0000  0.1350  0.4050  0.1350  0.3037 -0.1350  0.0338  0.1013  0.1688  0.0675  0.2363  0.1350  0.0338  0.2363 
 0.2025  0.3038  0.0338  0.0338  0.2025  0.0675  0.2025  0.2363  0.3038  0.1688  0.2700 -0.0675  0.2362  0.1013  0.2025  0.0675  0.0675  0.0338  0.1012  0.1688  0.3038  0.3038  0.0675  0.0338 
 0.0675 -0.3037 -0.1350 -0.1688  0.0000  0.4050  0.1688 -0.1350  0.0000  0.0000  0.3713  0.1687  0.2700  0.1350  0.5063 -0.0675  0.2363  0.3375  0.1688  0.2025 -0.1688  0.1350 -0.2363  0.0337 
-0.6750 -0.4050 -1.0800 -0.6075 -0.7762 -0.5063 -0.1687 -0.6075 -0.4050  0.1350 -0.1350 -0.4050 -0.1687 -0.3712 -0.3712 -0.4050 -0.1688 -0.4387 -0.0675 -0.5737  0.1350 -0.5737 -0.4387 -0.6750 
-1.0800 -1.3163 -1.4512 -1.6200 -1.0125 -0.9788 -0.9450 -0.9113 -0.5400 -0.7762 -0.7087 -1.1813 -0.8775 -0.9450 -0.8438 -0.7762 -1.0800 -1.0463 -0.6750 -1.2488 -0.7762 -1.0463 -1.0125 -1.3163 
-1.0125 -1.5862 -1.2488 -1.3838 -1.2150 -0.9788 -1.8225 -1.1813 -1.1813 -1.0125 -1.3838 -1.1138 -1.2488 -1.1475 -1.1475 -1.3500 -0.9113 -0.9788 -0.8775 -1.1813 -1.0800 -1.2825 -1.3500 -1.2488 
-1.2825 -1.3162 -1.3838 -1.3838 -1.3838 -1.0800 -1.5862 -1.4512 -1.1475 -1.0800 -1.4850 -1.4175 -1.0125 -1.2150 -1.3500 -1.2150 -1.6200 -1.3838 -1.6875 -1.1475 -1.0125 -1.5525 -1.1138 -1.0800 
-1.4175 -1.4850 -1.2825 -0.8100 -1.1812 -1.1138 -0.7425 -1.0125 -1.0800 -1.4175 -1.1138 -1.1138 -1.2488 -1.0800 -1.2488 -1.0125 -1.1475 -1.3500 -1.0125 -0.9450 -1.0125 -1.2150 -1.7212 -1.5188 
-0.8438 -1.2488 -1.1138 -1.2488 -1.2150 -1.1812 -1.0125 -1.1138 -1.0125 -1.0125 -1.3500 -0.8100 -1.1138 -1.3500 -1.3162 -1.4175 -1.1813 -0.9450 -1.2825 -1.1138 -1.5188 -1.1138 -1.3162 -1.2150 
-1.0125 -0.9787 -0.6075 -1.1475 -1.2488 -0.9113 -0.6075 -0.8100 -1.0800 -0.5063 -1.0800 -1.0125 -0.9450 -1.0462 -0.6750 -1.1138 -0.8775 -1.1138 -1.2150 -1.2488 -1.0800 -1.2150 -1.2150 -1.1812 
-0.5400 -0.6075 -0.8100 -0.7425 -0.7087 -0.2700  0.1688 -0.3038 -0.1687 -0.0675 -0.1350 -0.7087 -0.8100 -0.7425 -0.5063 -0.6412 -0.3037 -0.8775 -1.1138 -0.9450 -1.1475 -1.2825 -1.1475 -0.6075 
 0.0338 -0.3037 -0.6075 -0.2700 -0.5062 -0.0675  0.0000 -0.2025  0.2362  0.0675 -0.1013  0.1350  0.1013  0.1688 -0.2025  0.4050 -0.2700 -0.2362  0.0338 -0.2363 -0.2700 -0.1350 -0.2362  0.0675 
 0.2363  0.4725  0.0675  0.2362  0.2700  0.0338  0.1688  0.3375  0.1350 -0.1350  0.0675  0.0338  0.0338  0.1350  0.0000 -0.1013  0.2363 -0.1013 -0.2025  0.0338 -0.1688  0.4725  0.1688  0.1013 
-0.1350  0.2025  0.3712  0.3375 -0.0338  0.0337  0.1688  0.0675  0.2363 -0.1013  0.1688  0.2363  0.2025  0.4387  0.2025  0.1350  0.0338  0.0675  0.0338  0.3375 -0.0675  0.1350  0.2025  0.1350 
 0.1688  0.5062 -0.0338 -0.1013  0.0675  0.1688  0.2025  0.0675 -0.0338  0.1013 -0.0675  0.4725  0.1688  0.0338  0.0338  0.1013  0.4050  0.3375  0.2700  0.3375  0.0675  0.2700  0.0338  0.4387 
 0.0675 -0.0338  0.0338 -0.3038 -0.0338 -0.1013 -0.0338  0.0338 -0.1012 -0.1350  0.0338  0.1687  0.1013 -0.1688  0.0675  0.2700  0.2025 -0.3038 -0.4725  0.2363  0.3712 -0.0675  0.1012 -0.0675 
-0.2363 -0.2700 -0.3375 -0.6750 -0.8438 -0.5737 -0.8775 -0.1013 -0.3375 -0.5063 -0.5737 -0.8775 -0.8775 -0.7425 -0.9450 -0.3375 -0.5737 -0.6075 -0.9113 -0.6075 -0.7087 -0.3037 -0.5400 -0.1012 
-0.7087 -0.5400 -0.8100 -1.0800 -0.9450 -1.2150 -0.6750 -0.2025 -0.7425 -1.1812 -0.9450 -0.9450 -1.1475 -0.8100 -1.2150 -0.7087 -0.9787 -1.1138 -0.8438 -0.8100 -1.0125 -1.0463 -1.1813 -0.7087 
-1.4512 -0.8775 -0.9113 -1.0125 -1.5188 -0.7425 -0.9450 -0.8100 -1.0800 -1.2488 -0.9788 -1.2150 -1.0462 -1.1475 -1.2150 -0.8775 -0.9112 -1.1812 -0.9112 -1.0125 -1.2825 -1.0463 -0.9113 -1.3500 
-0.8438 -1.0125 -0.9113 -1.0462 -1.0800 -1.2825 -0.9788 -1.0125 -1.1475 -1.2825 -1.0800 -1.2488 -1.2825 -1.3838 -1.4175 -1.1475 -1.4175 -1.6538 -1.2150 -1.1813 -1.2825 -1.2488 -1.4850 -1.3838 
-0.7087 -0.7762 -0.8438 -1.2150 -1.1813 -1.2150 -1.0800 -0.8775 -1.0800 -1.2825 -1.6200 -1.2150 -1.4512 -1.2825 -1.1475 -1.3838 -1.0800 -1.1475 -1.3162 -1.0462 -1.3162 -1.1138 -1.5188 -1.2150 
-1.3162 -0.9788 -1.0463 -1.0800 -0.9788 -1.4850 -1.5188 -0.8438 -0.9450 -1.1813 -1.2825 -1.4175 -1.1475 -1.6200 -1.1475 -1.2150 -0.9450 -1.3162 -1.2825 -1.4512 -0.9112 -1.0800 -1.1475 -1.0800 
-0.9788 -0.8438 -0.7425 -0.6413 -0.8438 -1.2488 -0.9450 -1.2150 -1.3162 -1.2488 -1.2825 -1.0800 -0.9788 -0.6750 -0.8100 -0.9112 -1.1138 -1.1475 -1.4850 -0.8100 -0.9450 -0.9113 -1.0125 -0.9788 
-0.1688 -0.4725 -0.2700 -0.4387 -0.7087 -0.2700 -0.6413 -0.6750 -0.5063 -1.0463 -0.9788 -0.6750 -0.8775 -0.5400 -0.3037 -0.8775 -0.7425 -0.4050 -0.3712 -0.3037 -0.4388 -0.3375 -0.4725 -0.5400 
 0.0675  0.2363  0.4050  0.0675 -0.0675  0.4725 -0.5738 -0.1350 -0.2362 -0.2700  0.0000 -0.3037 -0.3037  0.1350  0.0000  0.0675 -0.1012 -0.2700 -0.0675  0.0675  0.0338  0.1350 -0.0675 -0.2700 
 0.0000  0.0000  0.3038  0.0337  0.1013  0.0000  0.2363  0.2363  0.2700  0.5737  0.1350  0.1350  0.1013  0.3375  0.2700  0.2700  0.0338  0.1013  0.1013  0.0675 -0.0338  0.2363  0.2363  0.0675 
-0.1013  0.2362  0.0675  0.3038 -0.1012  0.2363 -0.0338  0.3375  0.1350  0.2700  0.3713 -0.0675  0.1013  0.2025  0.1350  0.2700  0.1350 -0.1012  0.1013  0.0675  0.2025  0.1688  0.1013  0.3038 
-0.3712 -0.0338 -0.4050 -0.3375  0.1687 -0.0338 -0.2025  0.1350  0.0000  0.1688  0.0675  0.0338  0.1350 -0.0675 -0.2363 -0.1687  0.3038 -0.0675  0.1013  0.1013  0.1013 -0.0675 -0.2363  0.0000 
-0.6075 -0.8100 -0.9112 -0.7762 -0.6750 -0.5063 -0.2025 -0.2025  0.1688 -0.0338  0.0675 -0.4725 -0.7087 -0.5737 -0.3712 -0.5062 -0.5737 -0.2700 -0.3712 -0.5400 -0.4050 -0.5737 -1.0800 -0.7762 
-1.1138 -1.0800 -0.8100 -0.9112 -0.9788 -1.3163 -0.7425 -0.7425 -0.6412 -0.9113 -0.6075 -1.1812 -0.9788 -1.1138 -1.0125 -1.2150 -0.9112 -0.4725 -0.7762 -1.1138 -1.3838 -1.2150 -0.9113 -1.0463 
-1.2150 -1.1138 -1.2150 -1.2825 -1.2825 -0.9113 -1.1813 -0.8438 -0.9450 -1.2488 -1.2488 -1.3838 -1.5188 -1.2488 -1.2150 -1.0462 -1.3838 -0.8438 -1.2488 -0.9112 -1.1812 -1.2150 -1.3162 -1.1475 
-1.1812 -1.0463 -1.2150 -1.1812 -1.2150 -1.2825 -1.0462 -1.2150 -1.2150 -1.2825 -1.1138 -0.7425 -1.3838 -1.2150 -1.0463 -1.5525 -1.2150 -1.3838 -1.3838 -1.2488 -1.1812 -0.9788 -0.9788 -1.2488 
-1.2488 -1.2825 -1.0800 -1.1475 -1.4513 -1.0125 -1.0800 -1.1813 -1.1812 -1.1138 -1.0462 -1.2488 -1.6200 -1.2488 -1.1475 -1.4175 -1.1813 -1.3162 -1.1812 -1.2487 -1.3838 -1.0800 -1.2488 -1.1813 
-1.1138 -1.0800 -0.9788 -1.0800 -1.4175 -1.1475 -1.0462 -0.9788 -1.1813 -1.3163 -1.2825 -1.2488 -1.4175 -1.3163 -1.2488 -1.1812 -0.7762 -1.1812 -1.8900 -1.4513 -1.1812 -1.1475 -1.3162 -0.9450 
-0.9113 -0.9450 -0.9112 -1.3162 -1.2825 -0.9113 -1.0463 -0.8438 -0.7425 -0.8775 -0.6413 -0.8438 -1.1138 -0.9450 -1.0800 -0.9450 -0.9113 -1.2825 -1.3500 -1.3500 -1.2150 -1.0800 -1.0462 -1.0800 
-0.3713 -0.8438 -0.3375 -0.5737 -0.7762 -0.5737 -0.2025 -0.1688 -0.2700 -0.4388 -0.8438 -0.4725 -0.4050 -0.5062 -0.6412 -0.5400 -0.8438 -0.9450 -0.7087 -0.4725 -1.1138 -0.5400 -0.8438 -0.5400 
 0.1350  0.0337  0.0337  0.1013 -0.3375 -0.1350 -0.2025 -0.1013 -0.2700 -0.3037  0.0675  0.1013  0.1688  0.2025  0.0338 -0.4725 -0.6750 -0.5400 -0.1688 -0.0338 -0.5063 -0.2700 -0.0675 -0.1013 
-0.3712 -0.2025  0.1350 -0.2362 -0.0675 -0.0675  0.3375 -0.0338  0.1013  0.0337 -0.1013  0.1012 -0.2025  0.1687 -0.0338 -0.2700 -0.2363  0.0675 -0.0675 -0.4050 -0.5063 -0.7425  0.1350 -0.2025 
 0.1013  0.2700  0.1350  0.2363  0.4387  0.1350  0.4387  0.3038  0.2363  0.3375  0.1350 -0.0338  0.2362  0.2363  0.1012  0.1687  0.0000  0.2025 -0.1350 -0.3038 -0.1687  0.1350  0.2025  0.1688 
 0.1012  0.0000  0.2025  0.0675  0.0000  0.0000  0.2025  0.3038  0.3712  0.2362  0.2025  0.2025  0.2025  0.2363  0.3037  0.1350  0.0675  0.0675  0.0675  0.1688 -0.2025 -0.0338  0.4050  0.2700 
 0.1013  0.1688  0.1688 -0.0337 -0.0675  0.0000  0.1688  0.2363 -0.1013 -0.1350 -0.1688  0.2362 -0.1350 -0.2025 -0.3713 -0.2025  0.1688 -0.1013 -0.1350 -0.2025 -0.1013 -0.2700  0.0000 -0.2025 
-0.2025 -0.1350  0.0000 -0.1688 -0.5400 -0.5400 -0.2025 -0.3037 -0.8775 -0.5737 -0.8438 -0.6750 -0.6412 -0.9450 -0.9788 -1.0463 -0.3037 -0.8438 -0.7762 -0.4725 -0.5062 -0.8438 -0.6075 -0.5063 
-0.7087 -0.3712 -0.6750 -1.1138 -1.0800 -1.1138  0.0675 -0.6075 -0.5737 -1.0125 -1.0800 -1.4850 -1.2488 -1.0800 -1.0800 -0.9113 -1.2825 -0.6075 -1.0463 -0.7763 -0.9112 -1.1138 -1.2825 -1.0800 
-1.1813 -0.9450 -0.9788 -1.3838 -1.5188 -1.3162 -0.7425 -1.2150 -1.5525 -0.9450 -1.0125 -1.3500 -1.5525 -1.2150 -1.2150 -1.1138 -1.2488 -1.3500 -1.2150 -1.0125 -1.2150 -1.0800 -1.1138 -1.1138 
-0.9112 -0.6750 -1.3162 -0.9788 -1.3500 -1.5525 -1.1812 -0.9450 -1.2825 -1.2488 -1.0800 -1.1812 -1.3162 -1.1812 -1.0463 -1.1138 -1.2488 -1.4850 -1.1138 -1.3162 -1.0800 -1.2825 -1.4175 -0.9112 
-1.4175 -1.3838 -1.0800 -1.0800 -1.2150 -1.4850 -1.1475 -1.0463 -1.2150 -1.6538 -1.3162 -1.2825 -1.2488 -1.3500 -0.8438 -0.9450 -1.2825 -1.2150 -1.0463 -1.3162 -1.5188 -1.0125 -1.3162 -0.9450 
-1.1475 -1.0125 -1.2488 -0.9113 -1.2825 -0.8775 -1.0125 -1.1138 -1.8562 -1.2488 -1.3162 -1.1475 -1.0462 -0.8775 -1.0800 -1.2150 -1.3500 -1.5525 -1.2150 -1.1138 -1.1475 -1.2488 -1.4512 -1.1475 
-0.7763 -1.1812 -0.8775 -1.0125 -1.3838 -0.7762 -0.6075 -1.3500 -0.9450 -1.1475 -0.7087 -1.1475 -0.9112 -1.0462 -1.1138 -1.0125 -0.9788 -0.9112 -1.0462 -0.5737 -0.8100 -0.7425 -0.8100 -0.8100 
-0.4050 -0.8775 -0.6413 -0.5062 -0.7762 -0.0675 -0.1013 -0.7087 -0.6412 -0.4050 -0.5400 -0.4725 -0.9112 -0.4725 -0.4050 -0.6075 -0.5737 -0.9788 -0.5400 -0.5063  0.1013 -0.2700 -0.6750 -0.5062 
 0.0338 -0.1350  0.1350  0.1688  0.0675 -0.2025  0.1013 -0.1350  0.0000 -0.1688 -0.0337 -0.1013 -0.1013  0.1013  0.0338  0.0675 -0.3038 -0.2700 -0.2025 -0.2025  0.0000  0.2700 -0.2025  0.3037 
 0.1688  0.1350  0.2700  0.2700  0.2025  0.2363  0.2363 -0.1688 -0.2363  0.0338  0.2025  0.0000 -0.2363  0.1013  0.2362 -0.0675  0.2700  0.2025  0.0337 -0.2700  0.0337  0.2025  0.2025  0.0338 
 0.0675  0.2363  0.1688  0.2363  0.2025  0.2363 -0.0675  0.0675  0.0675  0.2363  0.4725  0.3375  0.2363  0.1688  0.1688  0.2025  0.2025  0.0675  0.1013  0.1350  0.3037  0.1687  0.2025  0.1350 
-0.2363 -0.3712 -0.1688 -0.2363 -0.2700  0.4050  0.4050  0.0675  0.0338  0.2025  0.3375 -0.0675 -0.1688 -0.2025  0.3375 -0.4725 -0.0675 -0.2700 -0.0338  0.0000 -0.1688  0.0675 -0.0675 -0.2025 
-0.6750 -0.8100 -0.9112 -1.0462 -0.6750 -0.4725 -0.5062 -0.7087 -0.1688  0.1012  0.0000 -0.4050 -1.2488 -0.7762 -0.7425 -0.6413 -1.1475 -0.4050  0.4050 -0.0338 -0.6413 -0.6750 -0.7425 -0.7425 
-0.9113 -1.1138 -0.9788 -0.8438 -1.1813 -0.9450 -0.9788 -0.7762 -0.8438 -1.0463 -0.4387 -1.1138 -1.0800 -1.1475 -0.9112 -0.8775 -0.8775 -0.9788 -1.0125 -0.7762 -1.1138 -0.9788 -0.9450 -0.9787 
-1.3500 -1.3500 -0.8100 -1.1138 -1.6875 -1.2150 -0.9113 -0.9450 -1.1812 -1.2825 -1.1138 -1.2825 -1.2150 -1.3500 -1.3500 -1.6875 -1.2825 -1.1475 -1.3838 -1.0462 -1.3500 -1.4850 -1.3838 -1.1138 
-1.0800 -0.9450 -1.0462 -0.9788 -0.9450 -1.0800 -1.3500 -1.1812 -0.9788 -1.0800 -1.4513 -1.1475 -1.2150 -1.5525 -1.1813 -1.2488 -1.3500 -1.3500 -1.1138 -1.2825 -1.5188 -1.3838 -0.9450 -1.3500 
-1.0462 -1.1475 -1.1475 -1.0800 -1.2825 -1.6200 -0.8775 -1.3500 -0.9788 -1.3838 -1.1475 -1.0125 -1.3500 -1.2488 -1.4850 -1.1138 -1.4512 -1.0463 -1.1813 -1.2150 -1.1138 -1.4175 -1.2150 -1.1813 
-1.5188 -1.3838 -0.6413 -1.5188 -1.3162 -1.4175 -1.1813 -1.0125 -1.3162 -1.0125 -1.3162 -1.1138 -1.2150 -1.1812 -1.3838 -1.3500 -1.2488 -1.3163 -1.1812 -1.1475 -1.3162 -1.0125 -1.3838 -1.6538 
-1.2825 -1.4512 -0.8100 -0.9112 -0.7087 -0.7087 -0.9788 -0.9787 -1.2150 -0.8100 -1.3163 -1.0462 -0.8438 -0.6412 -0.5400 -1.1138 -1.2825 -0.9788 -1.1475 -1.2150 -0.9450 -1.2488 -1.1475 -0.6750 
-0.6075 -0.6075 -0.3712 -0.6412 -0.5737 -0.3375  0.0000 -0.1013 -0.4050 -0.9788 -0.5400 -0.2700 -0.4050 -0.2363 -0.2362 -0.3037 -0.9788 -0.6075 -0.8775 -0.9112 -0.8100 -1.1812 -0.5063 -0.5062 
-0.7425 -0.5737 -1.1813 -0.7425 -0.2700 -0.7087 -0.3037 -0.5063 -0.9112 -0.8100 -0.4725  0.0000  0.1013 -0.9112 -0.8775 -0.5737 -0.1350  0.0000 -0.7087 -1.0800 -0.5400 -0.9113 -0.4050 -0.5400 
-0.1350  0.2362 -0.3037 -0.1688  0.1350  0.1350 -0.0675 -0.1688 -0.2363 -0.0675 -0.1350  0.0000  0.2025 -0.0338  0.1350 -0.1013  0.0000  0.0000 -0.2363 -0.1350 -0.0675  0.1013  0.0000  0.0338 
 0.3375 -0.1013  0.2363  0.2025 -0.0675 -0.0675  0.1350  0.1350  0.1013 -0.0675 -0.0338  0.2363  0.1350  0.2025 -0.0675 -0.0337  0.1350 -0.0675 -0.0675  0.3712 -0.2025  0.1013  0.0337  0.1350 
 0.0000  0.1013  0.4050  0.1688  0.2025  0.1013  0.3712  0.2700  0.2363  0.1350  0.0675  0.2700  0.1350 -0.1688  0.1350  0.1688  0.2362  0.0675  0.2363  0.1688  0.0675  0.4387  0.2700 -0.0338 
 0.3038  0.0338  0.1687  0.1350  0.1013 -0.2025  0.1688  0.0338  0.3712  0.1013  0.2700  0.2025  0.2025 -0.3037  0.1688  0.0675  0.1012 -0.1688 -0.1688 -0.2363 -0.0675 -0.1350 -0.2700  0.1013 
-0.1688 -0.1013 -0.2700 -0.5062 -0.4050 -0.2025 -0.2025 -0.1350 -0.0338 -0.1013 -0.5062 -0.5062 -0.9450 -0.9788 -0.3713 -0.3712 -0.0338  0.0675 -0.5062 -0.1350 -0.2363 -0.5400 -0.6413 -0.3713 
-0.8100 -0.5062 -0.7425 -0.8437 -1.1138 -1.0125 -0.9112 -0.8438 -1.0462 -0.8775 -1.1812 -1.0463 -1.0463 -1.1138 -0.3713 -0.7425 -0.3712 -0.7425  0.0000 -0.9450 -0.9112 -0.9788 -1.3162 -0.7087 
-0.7425 -1.0800 -1.2825 -1.7550 -1.3838 -1.0462 -1.1475 -1.1475 -1.4175 -1.2488 -1.2150 -1.4512 -1.1812 -1.2825 -1.0125 -1.0125 -1.1475 -1.0800 -1.1813 -0.8100 -1.2150 -1.1812 -0.9113 -1.1812 
-1.0463 -1.3500 -1.4175 -1.3162 -1.5188 -1.2825 -1.3162 -1.3162 -1.2825 -1.4175 -1.0462 -1.4175 -1.4513 -1.1475 -1.1475 -1.1812 -1.3500 -1.3162 -0.8438 -1.4512 -1.2150 -1.1138 -1.0800 -1.4850 
-1.2825 -1.2825 -1.1812 -1.3162 -1.1812 -1.1812 -1.0125 -1.6875 -1.1812 -1.2150 -1.4175 -1.4175 -1.4512 -0.7425 -1.5525 -1.2825 -1.4513 -1.6538 -0.5737 -1.1138 -1.0125 -0.9112 -1.2488 -1.6200 
-1.2488 -1.1812 -1.2488 -1.2150 -1.3162 -1.2150 -0.9112 -1.3838 -1.3500 -1.2488 -1.1475 -1.3162 -1.2150 -1.2488 -0.9112 -1.3838 -1.2825 -1.1475 -1.1475 -0.7762 -1.2488 -1.4175 -1.1475 -1.0800 
-0.9113 -1.5188 -1.0125 -0.8775 -1.3838 -0.4725 -0.9113 -0.8775 -1.0800 -0.9113 -0.9113 -0.4725 -0.9113 -1.0125 -0.8100 -1.0800 -1.1812 -0.9788 -1.5188 -0.9788 -0.8100 -0.9112 -0.6750 -0.8775 
-0.4725 -0.6075 -0.7087 -0.4725 -0.5063 -0.4050 -0.2025 -0.1350 -0.9112 -0.5400 -0.5737 -0.4388 -0.7087 -0.6413 -0.3375 -0.5400 -0.8100 -1.0125 -1.0800 -0.6075 -0.8438 -0.5737 -0.4388 -0.2025 
 0.1687  0.1013  0.1688  0.3038  0.3712  0.0675 -0.0338  0.0675 -0.1688  0.2363 -0.2700 -0.2700 -0.3712 -0.0675  0.0675 -0.3713 -0.3037  0.1012 -0.3037 -0.3713  0.0000  0.1013  0.0000  0.2363 
 0.1013  0.0000  0.3038  0.0675  0.0675  0.0675  0.2025  0.0675  0.1687  0.1350  0.2025  0.1350  0.2700 -0.1350 -0.2363  0.2700  0.3375  0.3375  0.1688  0.2363 -0.1350  0.3713  0.1688  0.1350 
 0.1350  0.1688  0.1350  0.0675  0.2363  0.1012  0.1013  0.2363  0.3038  0.4725  0.3038  0.3038  0.0000  0.2700  0.1688  0.0000 -0.1013  0.2700  0.4387  0.2363  0.0675  0.0000  0.1350  0.6075 
 0.1013 -0.3038 -0.2363 -0.0675 -0.3375 -0.1350 -0.1350  0.0000 -0.1013  0.1350 -0.1688  0.1013  0.1688 -0.0675 -0.1012  0.0000  0.2025  0.1350  0.2025  0.0675  0.3712  0.2025 -0.0675  0.0675 
-0.5063 -0.7425 -1.0463 -0.5062 -0.6075 -0.4388 -0.7087 -0.5063 -0.7425 -0.2700 -0.1012 -0.3375 -0.7425 -0.8438 -0.4725 -0.2025 -0.2700 -0.5400 -0.3712 -0.3713 -0.2700 -0.5400 -0.6075 -0.3375 
-0.7087 -1.1138 -1.1812 -1.0800 -1.2488 -1.2150 -1.4175 -1.0462 -1.0462 -0.5400 -0.5400 -0.7425 -0.9112 -0.9113 -1.0125 -1.2150 -1.1812 -0.9788 -1.0125 -0.8100 -0.9113 -0.7763 -0.4050 -1.0125 
-1.1138 -1.1475 -1.3162 -1.0462 -1.1812 -1.6200 -1.6200 -1.6875 -0.9450 -1.3162 -1.1812 -1.2150 -1.2488 -1.3838 -0.6413 -0.8775 -1.4850 -0.7087 -1.1138 -1.1813 -1.2488 -0.9450 -0.9788 -1.2825 
-1.2150 -1.2150 -0.9113 -1.1812 -1.2825 -1.3162 -1.0800 -1.1812 -1.4513 -1.1138 -1.2150 -1.1475 -1.2488 -1.1138 -1.2488 -0.9450 -1.1138 -1.1813 -1.3500 -1.2488 -1.1475 -1.2488 -1.1475 -0.8438 
-1.2150 -1.1812 -1.4175 -1.4175 -1.1812 -0.9113 -0.9788 -0.9450 -1.4175 -1.1813 -1.1475 -0.8100 -0.9788 -1.3162 -1.0800 -0.7762 -0.8775 -1.4850 -0.7762 -1.0125 -1.3838 -0.9112 -1.1475 -1.4850 
-1.3838 -1.2488 -1.1812 -1.0462 -1.2488 -0.9450 -0.8100 -1.1138 -1.2150 -1.1475 -1.1812 -1.0125 -1.1138 -1.1475 -0.9788 -0.9450 -1.4175 -1.3838 -0.9788 -1.5188 -1.0125 -1.4850 -1.3162 -1.2825 
-1.0125 -1.5525 -1.0800 -1.1138 -0.7762 -0.9787 -0.5400 -0.8775 -1.0800 -0.9450 -0.6075 -0.8438 -0.8438 -0.9788 -1.3500 -0.7425 -0.8775 -1.2825 -1.0462 -1.0463 -0.9450 -1.0800 -1.0125 -1.0125 
-1.0463 -0.9450 -0.8100 -1.1138 -0.9788 -1.0463 -1.0125 -1.2150 -1.0800 -1.1138 -0.7762 -0.6413 -0.6750 -0.9788 -1.2488 -0.6750 -1.2488 -0.8100 -1.0463 -1.0800 -1.1812 -0.7762 -1.0800 -0.6750 
-0.7425 -0.6075 -0.7425 -0.5400 -0.5737 -0.6750 -0.7763 -1.0800 -1.0462 -0.8775 -0.8438 -0.2025 -0.3375 -0.6075 -0.6412 -0.8100 -0.3375 -0.4050 -0.7762 -0.4050 -0.3713 -0.4725 -0.4050 -0.2362 
-0.2700 -0.1350 -0.0338  0.0000 -0.3037 -0.2700 -0.2025 -0.0338 -0.0675 -0.4725 -0.4050 -0.0675  0.1013 -0.1350 -0.3037 -0.3375  0.0000  0.0000 -0.1350  0.3712 -0.0675 -0.4050  0.0338 -0.2025 
 0.1688  0.2700  0.0675  0.3038  0.2025  0.0675 -0.1013  0.1688  0.2700  0.3375 -0.0675  0.3375  0.1688  0.0675  0.1688  0.1350  0.3375  0.3037  0.2700  0.0338  0.1688  0.4050  0.0000  0.1013 
 0.3375  0.1350  0.0675  0.2363  0.0675  0.1350  0.3038  0.2363  0.0675 -0.0675  0.0000  0.0338  0.2025  0.1350  0.2362  0.2700  0.2025 -0.0675  0.1688  0.2363  0.2025 -0.0675  0.0338  0.1350 
 0.2025  0.0675 -0.0675 -0.1350  0.3712  0.3037  0.4050  0.3712 -0.1013  0.2363  0.0000 -0.0675 -0.0338  0.2362  0.0675 -0.0675  0.2700  0.2025 -0.0675  0.2363  0.1013  0.0675 -0.0675 -0.1013 
-0.0675 -0.3712 -0.2700 -0.9450 -0.5737 -0.2700 -0.3037  0.1350 -0.1350 -0.4387 -0.3037 -0.6075 -0.5737 -0.3712 -0.2700 -0.4387 -0.1013 -0.3712 -0.5400 -0.1350 -0.4050 -0.3712 -0.2362 -0.2025 
-0.8438 -0.3375 -1.0800 -1.1475 -0.8438 -0.9450 -1.1138 -1.4512 -1.0462 -1.1138 -0.8438 -1.0462 -1.2150 -1.0800 -1.0125 -1.2150 -1.0800 -0.5737 -0.7087 -0.6750 -0.8100 -0.9788 -1.0125 -0.7087 
-1.3162 -0.9788 -0.7425 -1.2488 -0.9113 -1.2488 -1.2488 -1.1812 -1.1475 -1.2488 -0.8100 -1.3838 -1.2150 -1.0125 -1.1138 -1.1138 -1.1475 -1.1475 -0.8100 -1.2150 -1.2488 -1.1138 -1.1138 -1.1138 
-1.4512 -1.5525 -1.3162 -1.0125 -1.4175 -1.0125 -0.9450 -1.3162 -1.4512 -1.2150 -1.1475 -1.4175 -1.1475 -1.0125 -1.1475 -1.4175 -1.5188 -1.1813 -0.9113 -1.2488 -1.5188 -1.1475 -1.1475 -1.1812 
-1.2150 -1.1812 -1.2150 -1.2150 -1.5862 -1.1812 -0.9788 -1.2825 -0.9113 -1.2825 -1.0800 -1.0463 -1.3500 -1.0125 -0.8775 -1.2488 -1.3162 -1.3500 -1.2825 -1.3500 -1.2488 -1.4512 -1.0125 -0.9112 
-1.1813 -1.1475 -1.4175 -1.3500 -1.2825 -0.8775 -1.6200 -1.4175 -1.3500 -1.0125 -1.2150 -1.0463 -1.3838 -1.1138 -1.1138 -1.1812 -1.4175 -1.0800 -1.0463 -1.4512 -1.6538 -1.2825 -1.0463 -1.2488 
-0.6075 -0.7425 -0.8775 -0.9788 -0.8775 -0.6075 -1.0463 -0.9112 -1.1138 -1.0800 -0.9450 -1.0125 -0.9450 -0.8775 -1.5863 -1.7550 -1.2150 -1.2150 -1.2488 -1.1138 -1.1812 -0.8100 -0.6750 -0.4387 
-0.2362 -0.1688 -0.2363  0.0675 -0.4388 -0.1013 -0.2363 -0.4388 -0.7087 -0.2700 -0.6413 -0.7087 -0.7425 -0.5062 -0.8775 -1.0462 -1.0463 -0.7763 -0.9450 -1.2488 -0.2700 -0.5062 -0.2362 -0.1687 
 0.4387  0.1013  0.2025 -0.0675  0.1013  0.0675 -0.2700  0.0000  0.1350  0.0338  0.0000  0.1013 -0.1350  0.1688  0.0338 -0.2700  0.0000  0.2363 -0.2362 -0.0337  0.0000  0.1350  0.0675  0.1687 
 0.1350  0.3375  0.0675  0.1688  0.1688  0.1688  0.2700  0.0337  0.3713  0.2025  0.3038  0.1688  0.2025  0.1350  0.0338  0.1013  0.0675  0.3375  0.1013  0.0338  0.3037  0.0338  0.0675  0.3038 
 0.2025  0.3375  0.0675  0.2363  0.3037 -0.0675  0.1688  0.1350  0.2363  0.1013  0.2363  0.2363  0.0675  0.1013  0.4050  0.3712  0.1350  0.2700  0.3375  0.0000  0.2700 -0.0338  0.2025 -0.1688 
 0.1013 -0.2700 -0.4388  0.1013  0.1350 -0.1350  0.0000  0.1013  0.0675  0.2363  0.1350  0.1688  0.2025 -0.1350  0.1350 -0.0675 -0.0675  0.1687  0.0338 -0.0338 -0.0337 -0.0675  0.1688 -0.1688 
 0.0338 -0.3375 -0.7425 -1.0125 -0.5062 -0.4387 -0.8438 -0.7425 -0.5062 -0.0675 -0.1013 -0.2700 -0.5737 -0.6750 -0.5737 -0.1688 -0.3375 -0.4387  0.0000 -0.3375  0.0675  0.0000  0.0675  0.1012 
-0.5062 -0.4725 -0.9112 -1.2825 -0.9113 -1.1813 -1.5525 -1.1475 -0.9788 -1.0462 -1.1475 -0.9788 -0.7425 -1.0463 -1.3162 -1.1138 -0.7762 -0.5400 -0.7425 -1.1138 -0.6412 -0.2700 -0.5062 -1.0463 
-0.7763 -0.8775 -0.7425 -1.1812 -1.3162 -1.3838 -1.0800 -1.2825 -1.1812 -1.1138 -1.3838 -1.0125 -1.1138 -1.1475 -0.9788 -0.8100 -1.3163 -0.6412 -0.7425 -0.9450 -0.9788 -0.9450 -1.2488 -0.6750 
-1.1475 -1.0462 -1.4512 -1.0125 -1.5188 -1.3162 -1.0463 -1.4850 -1.1138 -1.1138 -1.2150 -0.8438 -1.0800 -1.2488 -1.2488 -1.0125 -0.9787 -0.9788 -1.2825 -1.2488 -1.4175 -1.3838 -1.1812 -1.0800 
-1.2150 -1.3500 -1.0125 -1.4175 -0.9450 -1.1812 -1.2825 -0.9450 -1.3500 -1.4512 -1.3500 -1.0125 -0.6412 -1.0800 -1.2488 -1.0462 -1.5525 -0.9787 -1.2825 -1.5862 -1.3500 -0.8438 -1.5188 -1.2825 
-1.2150 -1.0125 -1.0125 -1.4850 -1.2150 -1.0800 -1.2825 -1.2150 -0.9113 -0.9112 -0.8438 -1.0125 -0.9788 -0.6750 -1.5188 -1.1812 -0.8775 -0.8775 -1.0800 -1.0800 -1.7212 -1.4850 -1.2825 -1.3838 
-1.3500 -1.6538 -0.9450 -1.0462 -1.2488 -1.4175 -1.1813 -1.3500 -1.6200 -1.5525 -0.9113 -0.9113 -1.1812 -1.1138 -1.2150 -1.9575 -1.0463 -0.9788 -1.0800 -1.1138 -1.0800 -1.2488 -1.0125 -1.2150 
-1.2825 -1.1812 -1.1475 -1.2825 -1.1475 -1.0462 -0.8438 -1.0462 -1.1475 -0.7087 -1.0125 -0.7425 -0.9788 -0.7425 -1.3500 -1.0800 -0.8775 -0.7087 -1.1138 -0.8100 -0.9788 -1.2150 -0.7763 -0.9788 
-1.0462 -0.5062 -0.8438 -0.2025 -0.5737 -0.5400 -0.5400 -0.9112 -0.5062 -0.9450 -0.7087 -0.5062 -0.7087 -0.7425 -0.6750 -0.5737 -0.5063 -0.2363 -0.5063 -0.5400 -0.2700 -0.4050 -0.5063 -0.5737 
-0.1012 -0.3037 -0.1012 -0.4388  0.1688 -0.0338  0.1013 -0.0338 -0.3037 -0.0338 -0.1350 -0.1687 -0.1687 -0.3712  0.0000  0.1688 -0.0338  0.1013  0.2025 -0.1350  0.2025  0.0338  0.0000  0.1012 
 0.1688  0.2025  0.2700  0.3038  0.1688  0.2025  0.0675  0.2700  0.1350  0.3037  0.2025  0.0338 -0.0338  0.1688  0.2025  0.2025  0.1350  0.3375  0.3038  0.1688  0.1350  0.0338  0.2700  0.6412 
 0.1688  0.3375  0.1013  0.1688  0.2025  0.0675  0.1350  0.2700  0.0338  0.2363  0.1687  0.1350  0.0675  0.0675  0.2025  0.1013  0.4050  0.2025  0.1013 -0.0337  0.2025  0.1350  0.2362  0.3038 
 0.0000  0.2363  0.1688 -0.2700 -0.1688 -0.1688  0.1688 -0.1350 -0.1013  0.1687  0.2025  0.2700 -0.0675  0.0000  0.3037 -0.3375  0.1688 -0.0338 -0.1687 -0.2025 -0.4725 -0.3712  0.3038 -0.1688 
-0.0675 -0.1012 -0.7087 -0.6413 -0.1688 -0.2025 -0.1350 -0.3037 -0.3037 -0.2700 -0.3038 -0.3713 -0.4387 -0.1350 -0.5400 -0.7425 -0.3038  0.0000 -0.1350 -0.2700 -0.6075 -0.6750 -0.3712 -0.5400 
-1.1813 -0.9112 -0.9450 -0.9788 -0.5062 -0.7087 -0.9788 -0.8775 -0.7762 -1.2487 -0.5400 -0.8100 -0.9112 -0.9450 -1.1138 -1.1475 -0.5063 -1.0800 -0.6413 -0.8438 -0.8775 -0.9788 -0.9787 -1.0800 
-1.1475 -1.2150 -0.9788 -1.0125 -0.8775 -0.8438 -0.9788 -1.2825 -1.1812 -0.9788 -0.9788 -0.9788 -1.1475 -1.0800 -1.1812 -1.4175 -0.9788 -1.2150 -1.2825 -1.1475 -1.4850 -1.2150 -1.1475 -1.2488 
-1.3163 -1.2825 -1.3162 -1.1812 -1.1475 -1.0800 -1.1138 -1.1138 -1.2825 -1.3162 -1.1475 -1.0462 -1.1812 -0.9450 -1.0125 -1.1138 -1.2150 -1.3838 -1.3162 -1.1812 -1.1812 -1.2150 -1.0125 -1.2825 
-1.5188 -1.2488 -1.1813 -1.4175 -1.7550 -1.2488 -1.0463 -1.1138 -1.0800 -1.0125 -1.3838 -1.4850 -1.3838 -1.2488 -1.4850 -1.1138 -1.3500 -0.9113 -1.1475 -1.5862 -1.2150 -1.1138 -1.2825 -1.4513 
-1.2825 -0.7425 -0.9113 -1.2487 -1.3838 -1.4175 -1.4175 -0.9113 -1.1138 -1.4850 -1.4175 -1.4850 -1.3500 -1.1813 -1.0462 -1.1138 -0.9113 -1.2825 -1.3838 -0.9113 -1.0125 -1.4175 -1.1475 -1.1812 
-0.6750 -1.1138 -0.8775 -0.9112 -1.0125 -0.8775 -0.8775 -0.7425 -0.9450 -0.8438 -0.9788 -0.7425 -0.6750 -1.1813 -1.2150 -0.7762 -1.3163 -1.1138 -1.3500 -1.6200 -1.2488 -1.4175 -0.8775 -0.7087 
-0.1688 -0.1687 -0.4725  0.0000 -0.5400 -0.1687 -0.8100 -0.4050 -0.2025 -0.3038 -0.3375  0.0338 -0.3713 -0.4388 -0.8438 -0.7087 -1.0800 -0.3712 -0.5063 -0.7425 -0.6750 -1.1475 -0.7762 -0.3713 
-0.1013  0.0675  0.0338  0.1350  0.0000 -0.3712  0.1350 -0.2363  0.1688 -0.2025  0.0000  0.3038  0.1350 -0.2363 -0.1688 -0.1350 -0.0675 -0.2700  0.0675 -0.2700  0.0000 -0.0675 -0.1687 -0.1350 
 0.4388  0.1012  0.2700  0.2700  0.0675  0.0675  0.2363  0.1350  0.2025 -0.0338  0.1687  0.1687  0.1688  0.0000  0.3038  0.0338 -0.1687  0.2363  0.1688  0.1687  0.2700  0.0675  0.1350  0.1012 
 0.1013  0.0000 -0.0338  0.0675 -0.0675  0.2025  0.0338  0.2363  0.1687  0.3038  0.0675  0.0675  0.2025  0.1350  0.1688  0.1013  0.1013  0.1013  0.2363  0.2700  0.2700  0.2025  0.1012  0.3712 
 0.2025  0.1350  0.0338 -0.0675 -0.5737 -0.4050  0.1013  0.2700 -0.0675 -0.1012  0.0338  0.2700 -0.0675  0.1012 -0.2025 -0.2700  0.2700  0.0338  0.3375  0.1013  0.1688 -0.0675  0.0000  0.1013 
-0.2700  0.0338 -0.1688 -0.4725 -1.0125 -0.9112 -0.9112 -0.5400 -0.1013 -0.1687 -0.5063 -0.3375 -0.3375 -0.8438 -0.7762 -0.5400  0.1013 -0.0338  0.1350 -0.1350 -0.4050 -0.3037  0.0000 -0.1013 
-0.8438 -0.5400 -0.8438 -1.0462 -1.0462 -1.1813 -1.0463 -0.8100 -0.7425 -1.0800 -0.8775 -1.3162 -0.9450 -0.9788 -1.0125 -0.4388 -0.3038 -0.4725 -0.9787 -1.0463 -0.6412 -0.6413 -0.3038 -0.6412 
-1.0125 -1.0800 -1.2825 -1.2488 -1.2825 -1.1812 -1.0125 -1.1138 -1.1813 -1.6538 -1.1138 -0.9788 -1.0463 -1.2150 -1.0463 -1.1812 -1.2825 -0.8438 -0.8775 -1.2825 -1.1138 -0.8438 -0.8100 -1.0462 
-0.9450 -1.3162 -1.3162 -1.0800 -1.1812 -1.3838 -1.0462 -1.4175 -1.4513 -1.5188 -1.2825 -1.2488 -1.0125 -1.2150 -1.4513 -0.8438 -1.3500 -1.0800 -1.1813 -0.9113 -1.0463 -1.5525 -1.3500 -1.1138 
-1.1475 -1.4850 -1.3500 -1.1812 -1.1812 -1.4512 -1.2150 -1.1475 -1.3500 -1.5525 -0.9788 -1.0800 -1.2150 -1.1812 -1.1812 -1.0800 -1.2488 -1.1812 -1.2488 -1.4175 -1.3838 -1.1138 -1.4513 -0.9113 
-1.0463 -1.1138 -1.3162 -1.1138 -1.0462 -1.0463 -1.2825 -1.4512 -1.3162 -1.1812 -1.7212 -1.3162 -1.3162 -1.2150 -1.1813 -1.2150 -0.9113 -1.4512 -1.3838 -1.1475 -1.0125 -1.2825 -1.2825 -0.9450 
-1.0800 -1.1812 -1.2488 -1.0125 -0.9788 -1.2488 -1.2488 -0.9788 -1.4850 -0.9113 -1.2488 -1.0800 -1.0462 -0.8100 -1.0800 -1.1812 -1.2488 -1.4175 -1.0463 -1.0125 -1.3162 -1.3500 -0.8100 -1.1812 
-0.8438 -1.2150 -0.9788 -1.0800 -0.8775 -0.9450 -1.0800 -0.9112 -1.1475 -1.1138 -1.0462 -0.9787 -1.2488 -0.9113 -1.0125 -0.9450 -0.9450 -0.7087 -0.8438 -1.0125 -0.8775 -1.2488 -1.0463 -1.0462 
-0.4050 -0.6075 -0.9450 -0.6750 -0.4387 -0.1687 -0.6413 -0.6413 -0.4725 -0.2700 -0.8438 -0.4050 -0.5737 -0.8438 -0.9450 -0.9450 -1.0462 -0.4725 -0.4050 -0.6413 -0.4387 -0.3375 -0.6413 -0.7425 
 0.1687  0.0338 -0.1013  0.0338 -0.0338 -0.1350  0.0675 -0.0675 -0.1688 -0.0338 -0.3037  0.2025 -0.0675  0.0337 -0.5062  0.0675 -0.1688 -0.0675  0.1688 -0.2025 -0.0675 -0.3375 -0.0338 -0.3375 
 0.2025  0.1688  0.0675  0.0675  0.0675 -0.1688 -0.0337  0.1013  0.2025  0.3038  0.1013  0.3713  0.3037  0.2363  0.0675  0.2700  0.1688  0.1687  0.5400  0.0338  0.0338  0.0675  0.0338  0.0338 
-0.0337  0.1688  0.1012  0.1350 -0.1013  0.1688  0.1687  0.3375  0.5062  0.1013  0.2025 -0.0338  0.3375 -0.1013  0.0675  0.2363  0.1012  0.1012  0.0675  0.4050 -0.1013 -0.0675  0.1687  0.0338 
-0.0337  0.3037 -0.1350  0.2025  0.3038  0.2025  0.3038  0.0338  0.1350  0.0000  0.0675  0.1012 -0.3375 -0.1687 -0.2025 -0.3037  0.0675  0.1013  0.1688  0.0000  0.0000 -0.1688  0.0000  0.2025 
-0.3375 -0.3038 -0.2700 -0.1350  0.0338  0.1012 -0.6075 -0.4387 -0.6075 -0.2700 -0.4050 -0.2700  0.0338 -0.3713 -0.7763 -1.0463 -0.6075 -0.5062 -0.0675 -0.3375 -0.1350 -0.7087 -0.6750 -0.3038 
-0.7425 -0.8438 -0.6750 -0.9788 -0.8438 -0.8100 -0.9112 -1.1812 -1.0800 -0.8100 -1.1812 -0.9113 -1.1138 -1.4513 -1.3838 -1.3162 -1.4850 -1.1138 -0.9788 -0.5737 -0.5400 -0.9450 -1.0800 -0.4725 